# vtk DataFile Version 3.0
Scalar Field Data
ASCII
DATASET STRUCTURED_POINTS
DIMENSIONS 256 256 1
ORIGIN 0 0 0
SPACING 0.00390625 0.00390625 1
POINT_DATA 65536
SCALARS scalars double
LOOKUP_TABLE default
0
0
0
0
0
0
0
0
0
0
0
0
0
0
0
0
0
0
0
0
0
0
0
0
0
0
0
0
0
0
0
0
0
0
0
0
0
0
0
0
0
0
0
0
0
0
0
0
0
0
0
0
0
0
0
0
0
0
0
0
0
0
0
0
0
0
0
0
0
0
0
0
0
0
0
0
0
0
0
0
0
0
0
0
0
0
0
0
0
0
0
0
0
0
0
0
0
0
0
0
0
0
0
0
0
0
0
0
0
0
0
0
0
0
0
0
0
0
0
0
0
0
0
0
0
0
0
0
0
0
0
0
0
0
0
0
0
0
0
0
0
0
0
0
0
0
0
0
0
0
0
0
0
0
0
0
0
0
0
0
0
0
0
0
0
0
0
0
0
0
0
0
0
0
0
0
0
0
0
0
0
0
0
0
0
0
0
0
0
0
0
0
0
0
0
0
0
0
0
0
0
0
0
0
0
0
0
0
0
0
0
0
0
0
0
0
0
0
0
0
0
0
0
0
0
0
0
0
0
0
0
0
0
0
0
0
0
0
0
0
0
0
0
0
0
0
0
0
0
0
0
0
0
0
0
0
0
0.00060704
0.00121371
0.00181964
0.00242447
0.00302783
0.00362935
0.00422867
0.00482542
0.00541924
0.00600977
0.00659665
0.00717952
0.00775804
0.00833185
0.0089006
0.00946394
0.0100215
0.0105731
0.0111182
0.0116565
0.0121878
0.0127116
0.0132278
0.0137359
0.0142357
0.0147269
0.0152091
0.015682
0.0161455
0.0165991
0.0170427
0.0174759
0.0178985
0.0183103
0.0187109
0.0191002
0.0194779
0.0198437
0.0201975
0.0205391
0.0208681
0.0211845
0.0214881
0.0217786
0.0220559
0.0223197
0.0225701
0.0228067
0.0230295
0.0232383
0.023433
0.0236135
0.0237796
0.0239313
0.0240685
0.0241911
0.0242989
0.0243921
0.0244704
0.0245338
0.0245824
0.0246161
0.0246348
0.0246385
0.0246273
0.0246011
0.02456
0.024504
0.0244331
0.0243474
0.0242469
0.0241317
0.0240018
0.0238573
0.0236984
0.0235251
0.0233375
0.0231357
0.0229199
0.0226902
0.0224467
0.0221896
0.021919
0.0216351
0.021338
0.0210281
0.0207053
0.02037
0.0200223
0.0196624
0.0192906
0.0189071
0.0185122
0.0181059
0.0176887
0.0172608
0.0168224
0.0163737
0.0159151
0.0154469
0.0149693
0.0144826
0.0139871
0.0134831
0.0129709
0.0124509
0.0119233
0.0113884
0.0108467
0.0102983
0.00974372
0.00918321
0.00861712
0.00804581
0.00746961
0.00688887
0.00630395
0.0057152
0.00512299
0.00452766
0.00392959
0.00332913
0.00272665
0.00212251
0.00151709
0.000910746
0.000303849
-0.000303233
-0.000910131
-0.00151648
-0.0021219
-0.00272604
-0.00332852
-0.00392898
-0.00452705
-0.00512238
-0.00571459
-0.00630334
-0.00688826
-0.007469
-0.0080452
-0.00861652
-0.00918261
-0.00974312
-0.0102977
-0.0108461
-0.0113878
-0.0119227
-0.0124503
-0.0129703
-0.0134825
-0.0139865
-0.014482
-0.0149687
-0.0154463
-0.0159146
-0.0163731
-0.0168218
-0.0172602
-0.0176882
-0.0181054
-0.0185116
-0.0189066
-0.0192901
-0.0196619
-0.0200217
-0.0203694
-0.0207048
-0.0210275
-0.0213375
-0.0216346
-0.0219185
-0.0221891
-0.0224462
-0.0226897
-0.0229194
-0.0231352
-0.023337
-0.0235246
-0.0236979
-0.0238569
-0.0240013
-0.0241312
-0.0242464
-0.0243469
-0.0244326
-0.0245035
-0.0245596
-0.0246007
-0.0246268
-0.0246381
-0.0246343
-0.0246156
-0.024582
-0.0245334
-0.02447
-0.0243917
-0.0242985
-0.0241907
-0.0240681
-0.023931
-0.0237793
-0.0236131
-0.0234327
-0.023238
-0.0230292
-0.0228064
-0.0225697
-0.0223194
-0.0220555
-0.0217783
-0.0214878
-0.0211842
-0.0208678
-0.0205388
-0.0201972
-0.0198434
-0.0194776
-0.0190999
-0.0187107
-0.01831
-0.0178983
-0.0174757
-0.0170425
-0.0165989
-0.0161453
-0.0156818
-0.0152089
-0.0147267
-0.0142355
-0.0137357
-0.0132276
-0.0127115
-0.0121876
-0.0116564
-0.011118
-0.0105729
-0.0100214
-0.00946382
-0.00890048
-0.00833174
-0.00775794
-0.00717943
-0.00659656
-0.00600969
-0.00541917
-0.00482536
-0.00422861
-0.00362931
-0.00302779
-0.00242444
-0.00181962
-0.0012137
-0.000607032
0
0
0.00121371
0.00242668
0.00363819
0.00484748
0.00605383
0.0072565
0.00845477
0.0096479
0.0108352
0.0120159
0.0131893
0.0143547
0.0155114
0.0166586
0.0177958
0.0189221
0.020037
0.0211397
0.0222296
0.0233059
0.0243682
0.0254156
0.0264476
0.0274635
0.0284628
0.0294448
0.0304089
0.0313545
0.0322812
0.0331882
0.034075
0.0349412
0.0357862
0.0366094
0.0374105
0.0381888
0.0389439
0.0396754
0.0403828
0.0410657
0.0417236
0.0423562
0.0429631
0.0435439
0.0440983
0.0446259
0.0451265
0.0455996
0.046045
0.0464625
0.0468518
0.0472127
0.0475448
0.0478481
0.0481224
0.0483675
0.0485831
0.0487693
0.0489259
0.0490528
0.0491499
0.0492172
0.0492545
0.049262
0.0492396
0.0491873
0.0491051
0.0489931
0.0488514
0.04868
0.0484791
0.0482487
0.047989
0.0477002
0.0473825
0.0470359
0.0466609
0.0462574
0.045826
0.0453666
0.0448798
0.0443657
0.0438247
0.043257
0.0426631
0.0420433
0.041398
0.0407276
0.0400324
0.0393129
0.0385695
0.0378028
0.0370131
0.0362009
0.0353667
0.0345111
0.0336345
0.0327375
0.0318206
0.0308844
0.0299295
0.0289564
0.0279657
0.026958
0.025934
0.0248942
0.0238393
0.0227699
0.0216867
0.0205904
0.0194815
0.0183608
0.017229
0.0160867
0.0149347
0.0137736
0.0126041
0.0114269
0.0102429
0.00905258
0.00785679
0.00665624
0.00545165
0.00424374
0.00303326
0.00182094
0.000607513
-0.000606282
-0.00181971
-0.00303203
-0.00424251
-0.00545042
-0.00665501
-0.00785557
-0.00905135
-0.0102416
-0.0114257
-0.0126029
-0.0137723
-0.0149335
-0.0160855
-0.0172278
-0.0183596
-0.0194803
-0.0205892
-0.0216855
-0.0227687
-0.0238381
-0.024893
-0.0259328
-0.0269568
-0.0279645
-0.0289552
-0.0299283
-0.0308833
-0.0318195
-0.0327364
-0.0336334
-0.03451
-0.0353656
-0.0361998
-0.0370119
-0.0378017
-0.0385684
-0.0393118
-0.0400313
-0.0407265
-0.0413969
-0.0420423
-0.0426621
-0.043256
-0.0438236
-0.0443647
-0.0448788
-0.0453656
-0.0458249
-0.0462564
-0.0466599
-0.0470349
-0.0473815
-0.0476992
-0.047988
-0.0482477
-0.0484781
-0.0486791
-0.0488505
-0.0489922
-0.0491042
-0.0491864
-0.0492387
-0.0492612
-0.0492537
-0.0492163
-0.0491491
-0.049052
-0.0489251
-0.0487685
-0.0485823
-0.0483667
-0.0481216
-0.0478474
-0.0475441
-0.0472119
-0.0468511
-0.0464618
-0.0460443
-0.0455989
-0.0451258
-0.0446253
-0.0440977
-0.0435433
-0.0429625
-0.0423556
-0.041723
-0.0410651
-0.0403822
-0.0396748
-0.0389434
-0.0381882
-0.0374099
-0.0366089
-0.0357857
-0.0349408
-0.0340746
-0.0331877
-0.0322807
-0.0313541
-0.0304085
-0.0294444
-0.0284624
-0.0274632
-0.0264472
-0.0254153
-0.0243678
-0.0233056
-0.0222293
-0.0211394
-0.0200367
-0.0189219
-0.0177956
-0.0166584
-0.0155112
-0.0143545
-0.0131891
-0.0120157
-0.010835
-0.00964778
-0.00845466
-0.00725641
-0.00605375
-0.00484742
-0.00363814
-0.00242665
-0.0012137
0
0
0.00181964
0.00363819
0.00545452
0.00726754
0.00907614
0.0108792
0.0126757
0.0144645
0.0162446
0.0180147
0.0197739
0.0215211
0.0232553
0.0249753
0.0266802
0.0283689
0.0300403
0.0316935
0.0333275
0.0349412
0.0365337
0.0381041
0.0396513
0.0411744
0.0426726
0.0441448
0.0455903
0.047008
0.0483972
0.0497571
0.0510867
0.0523853
0.0536521
0.0548864
0.0560873
0.0572542
0.0583863
0.059483
0.0605435
0.0615673
0.0625537
0.0635022
0.0644121
0.0652829
0.066114
0.0669051
0.0676555
0.0683648
0.0690326
0.0696585
0.0702422
0.0707831
0.0712812
0.0717359
0.0721471
0.0725145
0.0728378
0.073117
0.0733517
0.073542
0.0736876
0.0737884
0.0738444
0.0738557
0.073822
0.0737436
0.0736204
0.0734525
0.07324
0.0729831
0.0726818
0.0723364
0.0719471
0.0715141
0.0710377
0.0705182
0.0699559
0.0693511
0.0687042
0.0680155
0.0672856
0.0665149
0.0657037
0.0648527
0.0639623
0.0630331
0.0620656
0.0610604
0.0600182
0.0589395
0.0578251
0.0566755
0.0554915
0.0542739
0.0530232
0.0517404
0.0504262
0.0490814
0.0477068
0.0463032
0.0448715
0.0434126
0.0419273
0.0404166
0.0388813
0.0373224
0.0357409
0.0341376
0.0325137
0.03087
0.0292075
0.0275273
0.0258305
0.0241179
0.0223907
0.0206499
0.0188965
0.0171317
0.0153565
0.013572
0.0117792
0.00997931
0.00817333
0.00636239
0.00454759
0.00273003
0.000910809
-0.000908963
-0.00272818
-0.00454574
-0.00636055
-0.00817149
-0.00997747
-0.0117774
-0.0135702
-0.0153547
-0.0171299
-0.0188947
-0.0206481
-0.0223889
-0.0241161
-0.0258286
-0.0275255
-0.0292057
-0.0308681
-0.0325119
-0.0341358
-0.0357391
-0.0373206
-0.0388795
-0.0404148
-0.0419255
-0.0434108
-0.0448698
-0.0463015
-0.0477051
-0.0490797
-0.0504245
-0.0517387
-0.0530215
-0.0542722
-0.0554898
-0.0566738
-0.0578234
-0.0589379
-0.0600165
-0.0610588
-0.062064
-0.0630315
-0.0639607
-0.0648511
-0.0657022
-0.0665133
-0.0672841
-0.068014
-0.0687026
-0.0693496
-0.0699544
-0.0705167
-0.0710363
-0.0715127
-0.0719457
-0.072335
-0.0726804
-0.0729817
-0.0732386
-0.0734511
-0.073619
-0.0737423
-0.0738207
-0.0738544
-0.0738432
-0.0737871
-0.0736863
-0.0735407
-0.0733505
-0.0731158
-0.0728366
-0.0725133
-0.0721459
-0.0717348
-0.07128
-0.070782
-0.0702411
-0.0696575
-0.0690316
-0.0683638
-0.0676544
-0.0669041
-0.0661131
-0.0652819
-0.0644111
-0.0635013
-0.0625528
-0.0615664
-0.0605427
-0.0594821
-0.0583855
-0.0572534
-0.0560865
-0.0548856
-0.0536514
-0.0523846
-0.051086
-0.0497564
-0.0483966
-0.0470074
-0.0455897
-0.0441442
-0.042672
-0.0411739
-0.0396508
-0.0381036
-0.0365333
-0.0349408
-0.0333271
-0.0316931
-0.0300399
-0.0283685
-0.0266798
-0.024975
-0.023255
-0.0215209
-0.0197737
-0.0180145
-0.0162443
-0.0144644
-0.0126756
-0.0108791
-0.00907603
-0.00726745
-0.00545445
-0.00363814
-0.00181962
0
0
0.00242447
0.00484748
0.00726754
0.00968318
0.012093
0.0144954
0.016889
0.0192724
0.0216441
0.0240026
0.0263466
0.0286745
0.0309851
0.0332768
0.0355484
0.0377983
0.0400254
0.0422281
0.0444052
0.0465553
0.0486771
0.0507695
0.0528309
0.0548604
0.0568565
0.0588181
0.0607439
0.0626329
0.0644839
0.0662958
0.0680674
0.0697976
0.0714855
0.07313
0.0747301
0.0762848
0.0777932
0.0792544
0.0806675
0.0820316
0.0833459
0.0846096
0.0858219
0.0869822
0.0880896
0.0891435
0.0901434
0.0910885
0.0919783
0.0928122
0.0935899
0.0943107
0.0949742
0.0955801
0.096128
0.0966175
0.0970483
0.0974203
0.097733
0.0979865
0.0981805
0.0983148
0.0983895
0.0984045
0.0983597
0.0982552
0.098091
0.0978673
0.0975842
0.0972418
0.0968404
0.0963802
0.0958615
0.0952846
0.0946499
0.0939577
0.0932084
0.0924026
0.0915407
0.0906231
0.0896506
0.0886237
0.0875429
0.086409
0.0852227
0.0839846
0.0826955
0.0813562
0.0799676
0.0785303
0.0770455
0.0755138
0.0739363
0.0723139
0.0706476
0.0689384
0.0671874
0.0653955
0.063564
0.0616939
0.0597863
0.0578424
0.0558635
0.0538506
0.051805
0.0497279
0.0476207
0.0454846
0.0433208
0.0411308
0.0389158
0.0366771
0.0344162
0.0321344
0.0298331
0.0275137
0.0251775
0.0228261
0.0204609
0.0180832
0.0156945
0.0132963
0.0108901
0.00847718
0.00605916
0.00363746
0.00121355
-0.00121109
-0.003635
-0.0060567
-0.00847472
-0.0108876
-0.0132939
-0.0156921
-0.0180807
-0.0204584
-0.0228237
-0.0251751
-0.0275112
-0.0298307
-0.032132
-0.0344138
-0.0366747
-0.0389133
-0.0411284
-0.0433184
-0.0454822
-0.0476183
-0.0497256
-0.0518026
-0.0538482
-0.0558611
-0.0578401
-0.059784
-0.0616916
-0.0635617
-0.0653932
-0.0671851
-0.0689361
-0.0706453
-0.0723116
-0.073934
-0.0755116
-0.0770432
-0.0785281
-0.0799654
-0.0813541
-0.0826934
-0.0839824
-0.0852206
-0.0864069
-0.0875408
-0.0886216
-0.0896486
-0.0906211
-0.0915386
-0.0924006
-0.0932064
-0.0939557
-0.0946479
-0.0952827
-0.0958596
-0.0963783
-0.0968385
-0.0972399
-0.0975823
-0.0978655
-0.0980892
-0.0982534
-0.0983579
-0.0984027
-0.0983878
-0.0983131
-0.0981788
-0.0979848
-0.0977314
-0.0974186
-0.0970467
-0.0966159
-0.0961264
-0.0955786
-0.0949727
-0.0943092
-0.0935884
-0.0928108
-0.0919769
-0.0910871
-0.090142
-0.0891422
-0.0880883
-0.0869809
-0.0858207
-0.0846084
-0.0833447
-0.0820304
-0.0806664
-0.0792533
-0.0777922
-0.0762838
-0.0747291
-0.073129
-0.0714845
-0.0697967
-0.0680664
-0.0662949
-0.0644831
-0.0626321
-0.0607431
-0.0588173
-0.0568557
-0.0548596
-0.0528303
-0.0507688
-0.0486765
-0.0465547
-0.0444046
-0.0422275
-0.0400248
-0.0377979
-0.0355479
-0.0332764
-0.0309847
-0.0286742
-0.0263462
-0.0240023
-0.0216438
-0.0192721
-0.0168888
-0.0144952
-0.0120928
-0.00968306
-0.00726745
-0.00484742
-0.00242444
0
0
0.00302783
0.00605383
0.00907614
0.012093
0.0151024
0.0181027
0.021092
0.0240685
0.0270304
0.0299759
0.0329032
0.0358105
0.0386961
0.0415581
0.044395
0.0472049
0.0499861
0.052737
0.0554559
0.0581411
0.060791
0.063404
0.0659785
0.068513
0.0710058
0.0734556
0.0758608
0.0782199
0.0805315
0.0827942
0.0850067
0.0871675
0.0892755
0.0913292
0.0933275
0.0952692
0.097153
0.0989778
0.100743
0.102446
0.104087
0.105666
0.10718
0.108629
0.110012
0.111328
0.112577
0.113757
0.114868
0.11591
0.116881
0.117781
0.11861
0.119366
0.12005
0.120662
0.1212
0.121664
0.122055
0.122372
0.122614
0.122782
0.122875
0.122894
0.122838
0.122707
0.122502
0.122223
0.121869
0.121442
0.12094
0.120366
0.119718
0.118997
0.118205
0.11734
0.116404
0.115398
0.114322
0.113176
0.111961
0.110679
0.109329
0.107913
0.106431
0.104885
0.103275
0.101603
0.0998684
0.0980735
0.0962191
0.0943062
0.0923361
0.09031
0.088229
0.0860945
0.0839077
0.0816699
0.0793826
0.0770471
0.0746648
0.0722372
0.0697657
0.0672519
0.0646972
0.0621033
0.0594717
0.0568039
0.0541017
0.0513666
0.0486004
0.0458046
0.0429811
0.0401314
0.0372574
0.0343608
0.0314433
0.0285067
0.0255528
0.0225834
0.0196003
0.0166053
0.0136002
0.0105868
0.00756705
0.00454268
0.00151556
-0.00151248
-0.00453961
-0.00756398
-0.0105837
-0.0135971
-0.0166022
-0.0195972
-0.0225803
-0.0255497
-0.0285036
-0.0314402
-0.0343577
-0.0372544
-0.0401284
-0.042978
-0.0458016
-0.0485974
-0.0513636
-0.0540987
-0.0568009
-0.0594687
-0.0621003
-0.0646943
-0.0672489
-0.0697628
-0.0722343
-0.0746619
-0.0770442
-0.0793797
-0.0816671
-0.0839048
-0.0860916
-0.0882262
-0.0903072
-0.0923333
-0.0943035
-0.0962163
-0.0980708
-0.0998657
-0.1016
-0.103273
-0.104882
-0.106429
-0.10791
-0.109326
-0.110676
-0.111959
-0.113173
-0.114319
-0.115395
-0.116402
-0.117338
-0.118202
-0.118995
-0.119715
-0.120363
-0.120938
-0.121439
-0.121867
-0.12222
-0.1225
-0.122705
-0.122835
-0.122891
-0.122873
-0.122779
-0.122612
-0.122369
-0.122053
-0.121662
-0.121198
-0.12066
-0.120049
-0.119364
-0.118608
-0.117779
-0.116879
-0.115908
-0.114866
-0.113755
-0.112575
-0.111326
-0.11001
-0.108627
-0.107178
-0.105664
-0.104086
-0.102445
-0.100741
-0.0989764
-0.0971516
-0.0952678
-0.0933262
-0.091328
-0.0892743
-0.0871664
-0.0850055
-0.0827931
-0.0805304
-0.0782188
-0.0758597
-0.0734546
-0.0710049
-0.0685121
-0.0659777
-0.0634032
-0.0607902
-0.0581403
-0.0554552
-0.0527363
-0.0499855
-0.0472043
-0.0443944
-0.0415576
-0.0386956
-0.03581
-0.0329028
-0.0299755
-0.0270301
-0.0240682
-0.0210918
-0.0181025
-0.0151022
-0.0120928
-0.00907603
-0.00605375
-0.00302779
0
0
0.00362935
0.0072565
0.0108792
0.0144954
0.0181027
0.0216991
0.0252822
0.0288501
0.0324004
0.035931
0.0394398
0.0429247
0.0463836
0.0498142
0.0532146
0.0565828
0.0599165
0.0632139
0.0664729
0.0696916
0.0728679
0.0760001
0.079086
0.082124
0.0851121
0.0880485
0.0909315
0.0937593
0.0965301
0.0992424
0.101894
0.104485
0.107011
0.109473
0.111868
0.114196
0.116454
0.118641
0.120756
0.122798
0.124766
0.126658
0.128472
0.130209
0.131867
0.133445
0.134941
0.136356
0.137688
0.138937
0.140101
0.14118
0.142173
0.14308
0.1439
0.144633
0.145278
0.145835
0.146303
0.146682
0.146973
0.147174
0.147286
0.147308
0.147241
0.147084
0.146839
0.146504
0.14608
0.145568
0.144967
0.144278
0.143501
0.142638
0.141687
0.140651
0.13953
0.138323
0.137033
0.13566
0.134204
0.132666
0.131049
0.129351
0.127575
0.125722
0.123792
0.121787
0.119709
0.117557
0.115334
0.113041
0.11068
0.108251
0.105757
0.103198
0.100577
0.0978948
0.095153
0.0923535
0.089498
0.0865881
0.0836256
0.0806124
0.0775502
0.0744409
0.0712865
0.0680888
0.0648497
0.0615713
0.0582555
0.0549043
0.0515198
0.0481041
0.0446591
0.041187
0.0376899
0.0341699
0.0306292
0.0270699
0.0234941
0.0199041
0.016302
0.01269
0.00907035
0.00544515
0.00181665
-0.00181296
-0.00544146
-0.00906666
-0.0126864
-0.0162983
-0.0199004
-0.0234905
-0.0270662
-0.0306255
-0.0341662
-0.0376862
-0.0411833
-0.0446554
-0.0481004
-0.0515162
-0.0549007
-0.0582519
-0.0615677
-0.0648461
-0.0680852
-0.0712829
-0.0744374
-0.0775467
-0.0806088
-0.0836221
-0.0865846
-0.0894945
-0.0923501
-0.0951496
-0.0978913
-0.100574
-0.103195
-0.105754
-0.108248
-0.110677
-0.113038
-0.115331
-0.117554
-0.119705
-0.121784
-0.123789
-0.125719
-0.127572
-0.129348
-0.131045
-0.132663
-0.134201
-0.135657
-0.13703
-0.13832
-0.139527
-0.140648
-0.141685
-0.142635
-0.143498
-0.144275
-0.144964
-0.145565
-0.146077
-0.146501
-0.146836
-0.147082
-0.147238
-0.147305
-0.147283
-0.147171
-0.14697
-0.14668
-0.1463
-0.145832
-0.145275
-0.144631
-0.143898
-0.143078
-0.142171
-0.141177
-0.140099
-0.138934
-0.137686
-0.136354
-0.134939
-0.133443
-0.131865
-0.130207
-0.128471
-0.126656
-0.124764
-0.122797
-0.120755
-0.118639
-0.116452
-0.114194
-0.111867
-0.109471
-0.10701
-0.104483
-0.101893
-0.0992411
-0.0965289
-0.093758
-0.0909303
-0.0880474
-0.085111
-0.0821229
-0.079085
-0.0759991
-0.072867
-0.0696907
-0.0664721
-0.0632131
-0.0599158
-0.056582
-0.053214
-0.0498136
-0.046383
-0.0429242
-0.0394393
-0.0359306
-0.0324
-0.0288497
-0.0252819
-0.0216988
-0.0181025
-0.0144952
-0.0108791
-0.00725641
-0.00362931
0
0
0.00422867
0.00845477
0.0126757
0.016889
0.021092
0.0252822
0.0294571
0.0336141
0.0377507
0.0418643
0.0459526
0.0500129
0.0540429
0.0580401
0.062002
0.0659263
0.0698106
0.0736525
0.0774496
0.0811998
0.0849007
0.08855
0.0921455
0.0956852
0.0991667
0.102588
0.105947
0.109242
0.11247
0.11563
0.11872
0.121738
0.124682
0.12755
0.130341
0.133053
0.135684
0.138232
0.140697
0.143076
0.145368
0.147573
0.149687
0.151711
0.153642
0.15548
0.157224
0.158873
0.160425
0.161879
0.163236
0.164493
0.16565
0.166707
0.167662
0.168516
0.169268
0.169916
0.170462
0.170904
0.171242
0.171477
0.171607
0.171633
0.171555
0.171373
0.171086
0.170696
0.170202
0.169605
0.168905
0.168102
0.167198
0.166191
0.165084
0.163877
0.16257
0.161165
0.159661
0.158061
0.156365
0.154574
0.152689
0.150711
0.148642
0.146482
0.144234
0.141898
0.139476
0.136969
0.134379
0.131708
0.128957
0.126127
0.123221
0.120239
0.117185
0.11406
0.110866
0.107604
0.104277
0.100886
0.0974347
0.0939239
0.0903561
0.0867334
0.0830581
0.0793323
0.0755584
0.0717386
0.0678753
0.0639707
0.0600273
0.0560475
0.0520336
0.0479882
0.0439136
0.0398124
0.035687
0.0315399
0.0273737
0.0231909
0.018994
0.0147855
0.0105681
0.00634431
0.00211663
-0.00211233
-0.00634001
-0.0105638
-0.0147813
-0.0189897
-0.0231866
-0.0273694
-0.0315357
-0.0356827
-0.0398081
-0.0439094
-0.0479839
-0.0520294
-0.0560433
-0.0600231
-0.0639665
-0.067871
-0.0717344
-0.0755542
-0.0793281
-0.0830539
-0.0867293
-0.090352
-0.0939198
-0.0974306
-0.100882
-0.104273
-0.1076
-0.110862
-0.114056
-0.117181
-0.120236
-0.123217
-0.126123
-0.128953
-0.131704
-0.134376
-0.136966
-0.139472
-0.141894
-0.14423
-0.146479
-0.148638
-0.150707
-0.152685
-0.15457
-0.156361
-0.158058
-0.159658
-0.161161
-0.162567
-0.163874
-0.165081
-0.166188
-0.167194
-0.168099
-0.168902
-0.169602
-0.170199
-0.170693
-0.171083
-0.171369
-0.171552
-0.17163
-0.171604
-0.171474
-0.171239
-0.170901
-0.170459
-0.169914
-0.169265
-0.168513
-0.16766
-0.166704
-0.165647
-0.16449
-0.163233
-0.161877
-0.160422
-0.15887
-0.157222
-0.155478
-0.15364
-0.151708
-0.149685
-0.14757
-0.145366
-0.143074
-0.140695
-0.13823
-0.135682
-0.133051
-0.130339
-0.127549
-0.12468
-0.121736
-0.118719
-0.115629
-0.112469
-0.10924
-0.105946
-0.102587
-0.0991654
-0.0956839
-0.0921443
-0.0885488
-0.0848996
-0.0811987
-0.0774486
-0.0736515
-0.0698097
-0.0659255
-0.0620012
-0.0580393
-0.0540422
-0.0500123
-0.045952
-0.0418638
-0.0377502
-0.0336137
-0.0294567
-0.0252819
-0.0210918
-0.0168888
-0.0126756
-0.00845466
-0.00422861
0
0
0.00482542
0.0096479
0.0144645
0.0192724
0.0240685
0.0288501
0.0336141
0.0383577
0.043078
0.0477722
0.0524374
0.0570707
0.0616694
0.0662307
0.0707517
0.0752298
0.0796622
0.0840463
0.0883793
0.0926587
0.0968818
0.101046
0.105149
0.109188
0.113161
0.117065
0.120898
0.124658
0.128342
0.131948
0.135474
0.138918
0.142277
0.14555
0.148735
0.151829
0.154831
0.15774
0.160552
0.163267
0.165883
0.168398
0.170811
0.17312
0.175324
0.177422
0.179412
0.181293
0.183064
0.184724
0.186271
0.187706
0.189027
0.190233
0.191323
0.192297
0.193155
0.193895
0.194517
0.195022
0.195408
0.195675
0.195824
0.195854
0.195765
0.195557
0.19523
0.194785
0.194221
0.19354
0.192741
0.191825
0.190793
0.189644
0.188381
0.187003
0.185512
0.183908
0.182193
0.180367
0.178431
0.176387
0.174236
0.171979
0.169618
0.167154
0.164588
0.161923
0.159159
0.156298
0.153343
0.150295
0.147155
0.143926
0.140609
0.137208
0.133723
0.130156
0.126511
0.122789
0.118992
0.115123
0.111185
0.107178
0.103107
0.0989732
0.0947792
0.0905277
0.0862212
0.0818623
0.0774538
0.0729982
0.0684984
0.0639569
0.0593766
0.0547603
0.0501107
0.0454307
0.0407231
0.0359908
0.0312367
0.0264636
0.0216744
0.0168721
0.0120595
0.00723962
0.00241533
-0.00241042
-0.00723471
-0.0120546
-0.0168672
-0.0216695
-0.0264587
-0.0312318
-0.035986
-0.0407183
-0.0454258
-0.0501058
-0.0547554
-0.0593718
-0.0639521
-0.0684935
-0.0729934
-0.077449
-0.0818575
-0.0862164
-0.0905229
-0.0947745
-0.0989685
-0.103102
-0.107174
-0.11118
-0.115119
-0.118988
-0.122784
-0.126506
-0.130152
-0.133718
-0.137203
-0.140605
-0.143921
-0.14715
-0.15029
-0.153339
-0.156294
-0.159155
-0.161918
-0.164584
-0.16715
-0.169614
-0.171975
-0.174232
-0.176383
-0.178427
-0.180363
-0.182189
-0.183904
-0.185508
-0.186999
-0.188377
-0.18964
-0.190789
-0.191821
-0.192737
-0.193536
-0.194217
-0.194781
-0.195226
-0.195553
-0.195761
-0.19585
-0.195821
-0.195672
-0.195405
-0.195019
-0.194514
-0.193892
-0.193152
-0.192294
-0.19132
-0.190229
-0.189024
-0.187703
-0.186268
-0.184721
-0.183061
-0.18129
-0.179409
-0.177419
-0.175322
-0.173118
-0.170808
-0.168396
-0.16588
-0.163265
-0.16055
-0.157737
-0.154829
-0.151827
-0.148733
-0.145548
-0.142275
-0.138916
-0.135472
-0.131946
-0.12834
-0.124656
-0.120897
-0.117064
-0.11316
-0.109187
-0.105148
-0.101045
-0.0968806
-0.0926575
-0.0883782
-0.0840452
-0.0796612
-0.0752288
-0.0707508
-0.0662298
-0.0616686
-0.05707
-0.0524367
-0.0477716
-0.0430775
-0.0383572
-0.0336137
-0.0288497
-0.0240682
-0.0192721
-0.0144644
-0.00964778
-0.00482536
0
0
0.00541924
0.0108352
0.0162446
0.0216441
0.0270304
0.0324004
0.0377507
0.043078
0.0483792
0.0536511
0.0588904
0.0640939
0.0692585
0.0743811
0.0794585
0.0844876
0.0894655
0.0943891
0.0992553
0.104061
0.108804
0.113481
0.118089
0.122625
0.127087
0.131471
0.135776
0.139998
0.144136
0.148186
0.152146
0.156013
0.159786
0.163462
0.167038
0.170513
0.173885
0.177151
0.18031
0.183359
0.186297
0.189121
0.191831
0.194424
0.1969
0.199256
0.20149
0.203603
0.205592
0.207456
0.209194
0.210805
0.212288
0.213643
0.214867
0.215961
0.216924
0.217756
0.218455
0.219021
0.219455
0.219755
0.219922
0.219956
0.219856
0.219622
0.219255
0.218755
0.218122
0.217357
0.21646
0.215431
0.214272
0.212982
0.211563
0.210016
0.208341
0.20654
0.204614
0.202563
0.200389
0.198094
0.195678
0.193143
0.190492
0.187724
0.184843
0.181849
0.178745
0.175533
0.172214
0.16879
0.165264
0.161637
0.157913
0.154093
0.150179
0.146173
0.14208
0.137899
0.133636
0.129291
0.124867
0.120368
0.115796
0.111153
0.106443
0.101668
0.0968316
0.0919364
0.0869853
0.0819815
0.0769278
0.0718275
0.0666836
0.0614991
0.0562774
0.0510215
0.0457346
0.0404199
0.0350807
0.0297202
0.0243417
0.0189484
0.0135436
0.00813054
0.00271257
-0.00270705
-0.00812501
-0.013538
-0.0189429
-0.0243362
-0.0297147
-0.0350752
-0.0404144
-0.0457291
-0.051016
-0.0562719
-0.0614937
-0.0666781
-0.0718221
-0.0769224
-0.081976
-0.0869799
-0.091931
-0.0968262
-0.101663
-0.106437
-0.111148
-0.11579
-0.120363
-0.124862
-0.129285
-0.13363
-0.137894
-0.142074
-0.146168
-0.150173
-0.154087
-0.157908
-0.161632
-0.165259
-0.168785
-0.172209
-0.175528
-0.17874
-0.181844
-0.184838
-0.187719
-0.190487
-0.193139
-0.195673
-0.198089
-0.200384
-0.202558
-0.204609
-0.206536
-0.208337
-0.210012
-0.211559
-0.212978
-0.214267
-0.215427
-0.216455
-0.217353
-0.218118
-0.218751
-0.219251
-0.219618
-0.219852
-0.219952
-0.219918
-0.219752
-0.219451
-0.219018
-0.218451
-0.217752
-0.216921
-0.215958
-0.214864
-0.213639
-0.212285
-0.210802
-0.209191
-0.207453
-0.205589
-0.2036
-0.201487
-0.199253
-0.196897
-0.194422
-0.191828
-0.189118
-0.186294
-0.183356
-0.180307
-0.177149
-0.173883
-0.170511
-0.167036
-0.163459
-0.159784
-0.156011
-0.152144
-0.148184
-0.144134
-0.139997
-0.135774
-0.13147
-0.127085
-0.122623
-0.118087
-0.113479
-0.108803
-0.10406
-0.0992541
-0.0943879
-0.0894644
-0.0844866
-0.0794575
-0.0743801
-0.0692576
-0.0640931
-0.0588896
-0.0536504
-0.0483786
-0.0430775
-0.0377502
-0.0324
-0.0270301
-0.0216438
-0.0162443
-0.010835
-0.00541917
0
0
0.00600977
0.0120159
0.0180147
0.0240026
0.0299759
0.035931
0.0418643
0.0477722
0.0536511
0.0594974
0.0653076
0.0710781
0.0768055
0.0824863
0.088117
0.0936942
0.0992145
0.104675
0.110071
0.115401
0.12066
0.125847
0.130957
0.135987
0.140935
0.145798
0.150572
0.155254
0.159842
0.164333
0.168725
0.173014
0.177198
0.181274
0.18524
0.189094
0.192833
0.196455
0.199958
0.203339
0.206597
0.20973
0.212735
0.215611
0.218356
0.220968
0.223447
0.225789
0.227995
0.230062
0.23199
0.233776
0.235421
0.236923
0.238281
0.239495
0.240563
0.241484
0.24226
0.242888
0.243369
0.243702
0.243887
0.243924
0.243813
0.243554
0.243147
0.242593
0.241891
0.241042
0.240047
0.238906
0.237621
0.236191
0.234617
0.232901
0.231044
0.229047
0.22691
0.224636
0.222225
0.21968
0.217001
0.21419
0.211249
0.20818
0.204985
0.201665
0.198223
0.19466
0.19098
0.187183
0.183273
0.179251
0.175121
0.170884
0.166543
0.162102
0.157562
0.152926
0.148198
0.143379
0.138474
0.133484
0.128414
0.123265
0.118042
0.112747
0.107383
0.101955
0.096464
0.0909149
0.0853106
0.0796545
0.07395
0.0682006
0.0624099
0.0565812
0.0507182
0.0448244
0.0389034
0.0329588
0.0269942
0.0210132
0.0150194
0.00901652
0.00300816
-0.00300203
-0.00901039
-0.0150133
-0.021007
-0.0269881
-0.0329527
-0.0388973
-0.0448183
-0.0507121
-0.0565751
-0.0624038
-0.0681946
-0.073944
-0.0796484
-0.0853046
-0.0909089
-0.096458
-0.101949
-0.107377
-0.112741
-0.118036
-0.123259
-0.128408
-0.133478
-0.138468
-0.143374
-0.148192
-0.15292
-0.157556
-0.162096
-0.166538
-0.170878
-0.175115
-0.179245
-0.183267
-0.187177
-0.190974
-0.194655
-0.198217
-0.20166
-0.20498
-0.208175
-0.211244
-0.214185
-0.216995
-0.219674
-0.22222
-0.224631
-0.226905
-0.229042
-0.231039
-0.232896
-0.234612
-0.236186
-0.237616
-0.238902
-0.240042
-0.241037
-0.241886
-0.242588
-0.243143
-0.24355
-0.243809
-0.24392
-0.243883
-0.243698
-0.243365
-0.242884
-0.242256
-0.24148
-0.240559
-0.239491
-0.238277
-0.236919
-0.235418
-0.233773
-0.231986
-0.230059
-0.227991
-0.225786
-0.223443
-0.220965
-0.218352
-0.215607
-0.212732
-0.209726
-0.206594
-0.203336
-0.199955
-0.196452
-0.19283
-0.189092
-0.185238
-0.181271
-0.177195
-0.173011
-0.168722
-0.164331
-0.15984
-0.155252
-0.15057
-0.145796
-0.140933
-0.135986
-0.130955
-0.125845
-0.120659
-0.115399
-0.11007
-0.104673
-0.0992132
-0.093693
-0.0881159
-0.0824853
-0.0768046
-0.0710772
-0.0653068
-0.0594967
-0.0536504
-0.0477716
-0.0418638
-0.0359306
-0.0299755
-0.0240023
-0.0180145
-0.0120157
-0.00600969
0
0
0.00659665
0.0131893
0.0197739
0.0263466
0.0329032
0.0394398
0.0459526
0.0524374
0.0588904
0.0653076
0.0716852
0.0780192
0.0843059
0.0905415
0.096722
0.102844
0.108903
0.114897
0.12082
0.12667
0.132444
0.138136
0.143745
0.149267
0.154698
0.160035
0.165276
0.170415
0.175452
0.180381
0.185201
0.189909
0.194502
0.198976
0.20333
0.20756
0.211664
0.21564
0.219485
0.223196
0.226772
0.230211
0.233509
0.236666
0.239679
0.242547
0.245267
0.247839
0.25026
0.252529
0.254645
0.256606
0.258411
0.26006
0.26155
0.262882
0.264055
0.265067
0.265918
0.266607
0.267135
0.267501
0.267704
0.267744
0.267623
0.267338
0.266892
0.266283
0.265512
0.264581
0.263489
0.262237
0.260825
0.259256
0.257529
0.255645
0.253607
0.251414
0.249069
0.246573
0.243926
0.241132
0.238192
0.235107
0.231879
0.22851
0.225003
0.221359
0.21758
0.21367
0.20963
0.205462
0.20117
0.196756
0.192222
0.187571
0.182807
0.177932
0.172949
0.16786
0.16267
0.157381
0.151996
0.14652
0.140954
0.135303
0.129569
0.123757
0.11787
0.111911
0.105884
0.0997932
0.0936416
0.0874331
0.0811716
0.0748608
0.0685045
0.0621066
0.0556711
0.0492018
0.0427025
0.0361774
0.0296303
0.0230652
0.0164861
0.00989702
0.00330192
-0.00329518
-0.00989029
-0.0164794
-0.0230585
-0.0296236
-0.0361707
-0.0426958
-0.049195
-0.0556644
-0.0621
-0.0684978
-0.0748541
-0.0811649
-0.0874265
-0.0936349
-0.0997866
-0.105878
-0.111904
-0.117863
-0.12375
-0.129563
-0.135296
-0.140947
-0.146513
-0.15199
-0.157375
-0.162664
-0.167854
-0.172942
-0.177926
-0.182801
-0.187565
-0.192216
-0.19675
-0.201164
-0.205456
-0.209624
-0.213664
-0.217574
-0.221353
-0.224997
-0.228504
-0.231873
-0.235101
-0.238186
-0.241127
-0.243921
-0.246567
-0.249063
-0.251409
-0.253601
-0.25564
-0.257523
-0.25925
-0.26082
-0.262231
-0.263484
-0.264576
-0.265507
-0.266278
-0.266887
-0.267333
-0.267618
-0.26774
-0.267699
-0.267496
-0.26713
-0.266603
-0.265913
-0.265062
-0.26405
-0.262878
-0.261546
-0.260056
-0.258407
-0.256602
-0.254641
-0.252525
-0.250256
-0.247835
-0.245263
-0.242543
-0.239676
-0.236663
-0.233506
-0.230207
-0.226769
-0.223193
-0.219482
-0.215637
-0.211661
-0.207557
-0.203327
-0.198973
-0.194499
-0.189907
-0.185199
-0.180379
-0.175449
-0.170413
-0.165273
-0.160033
-0.154696
-0.149265
-0.143744
-0.138135
-0.132442
-0.126669
-0.120818
-0.114895
-0.108902
-0.102843
-0.0967208
-0.0905403
-0.0843049
-0.0780183
-0.0716843
-0.0653068
-0.0588896
-0.0524367
-0.045952
-0.0394394
-0.0329028
-0.0263462
-0.0197737
-0.0131891
-0.00659656
0
0
0.00717952
0.0143547
0.0215211
0.0286745
0.0358105
0.0429247
0.0500129
0.0570707
0.0640939
0.0710781
0.0780192
0.084913
0.0917552
0.0985417
0.105268
0.111931
0.118526
0.125049
0.131496
0.137863
0.144146
0.150342
0.156447
0.162456
0.168367
0.174176
0.179879
0.185473
0.190954
0.19632
0.201566
0.20669
0.211688
0.216558
0.221296
0.2259
0.230367
0.234694
0.238878
0.242918
0.24681
0.250552
0.254142
0.257578
0.260857
0.263978
0.266939
0.269738
0.272373
0.274842
0.277145
0.279279
0.281244
0.283038
0.284661
0.28611
0.287386
0.288488
0.289414
0.290164
0.290739
0.291137
0.291358
0.291402
0.291269
0.29096
0.290474
0.289811
0.288973
0.287959
0.286771
0.285408
0.283872
0.282163
0.280284
0.278234
0.276015
0.273629
0.271077
0.26836
0.26548
0.262439
0.259238
0.25588
0.252367
0.248701
0.244884
0.240918
0.236806
0.23255
0.228152
0.223617
0.218945
0.214141
0.209207
0.204145
0.19896
0.193654
0.18823
0.182692
0.177043
0.171287
0.165427
0.159466
0.153409
0.147258
0.141018
0.134692
0.128285
0.121799
0.11524
0.108611
0.101916
0.0951587
0.0883439
0.0814754
0.0745575
0.0675944
0.0605902
0.0535492
0.0464757
0.039374